# vtk DataFile Version 3.0
VTK from Matlab
ASCII
DATASET POLYDATA
POINTS	5581	double
3.000000e+01 1.500000e+01 0.000000e+00
2.950000e+01 1.500000e+01 0.000000e+00
2.900000e+01 1.500000e+01 0.000000e+00
2.850000e+01 1.500000e+01 0.000000e+00
2.800000e+01 1.500000e+01 0.000000e+00
2.750000e+01 1.500000e+01 0.000000e+00
2.700000e+01 1.500000e+01 0.000000e+00
2.650000e+01 1.500000e+01 0.000000e+00
2.600000e+01 1.500000e+01 0.000000e+00
2.550000e+01 1.500000e+01 0.000000e+00
2.500000e+01 1.500000e+01 0.000000e+00
2.450000e+01 1.500000e+01 0.000000e+00
2.400000e+01 1.500000e+01 0.000000e+00
2.350000e+01 1.500000e+01 0.000000e+00
2.300000e+01 1.500000e+01 0.000000e+00
2.250000e+01 1.500000e+01 0.000000e+00
2.200000e+01 1.500000e+01 0.000000e+00
2.150000e+01 1.500000e+01 0.000000e+00
2.100000e+01 1.500000e+01 0.000000e+00
2.050000e+01 1.500000e+01 0.000000e+00
2.000000e+01 1.500000e+01 0.000000e+00
1.950000e+01 1.500000e+01 0.000000e+00
1.900000e+01 1.500000e+01 0.000000e+00
1.850000e+01 1.500000e+01 0.000000e+00
1.800000e+01 1.500000e+01 0.000000e+00
1.750000e+01 1.500000e+01 0.000000e+00
1.700000e+01 1.500000e+01 0.000000e+00
1.650000e+01 1.500000e+01 0.000000e+00
1.600000e+01 1.500000e+01 0.000000e+00
1.550000e+01 1.500000e+01 0.000000e+00
1.500000e+01 1.500000e+01 0.000000e+00
3.000000e+01 1.450000e+01 0.000000e+00
2.950000e+01 1.450000e+01 0.000000e+00
2.900000e+01 1.450000e+01 0.000000e+00
2.850000e+01 1.450000e+01 0.000000e+00
2.800000e+01 1.450000e+01 0.000000e+00
2.750000e+01 1.450000e+01 0.000000e+00
2.700000e+01 1.450000e+01 0.000000e+00
2.650000e+01 1.450000e+01 0.000000e+00
2.600000e+01 1.450000e+01 0.000000e+00
2.550000e+01 1.450000e+01 0.000000e+00
2.500000e+01 1.450000e+01 0.000000e+00
2.450000e+01 1.450000e+01 0.000000e+00
2.400000e+01 1.450000e+01 0.000000e+00
2.350000e+01 1.450000e+01 0.000000e+00
2.300000e+01 1.450000e+01 0.000000e+00
2.250000e+01 1.450000e+01 0.000000e+00
2.200000e+01 1.450000e+01 0.000000e+00
2.150000e+01 1.450000e+01 0.000000e+00
2.100000e+01 1.450000e+01 0.000000e+00
2.050000e+01 1.450000e+01 0.000000e+00
2.000000e+01 1.450000e+01 0.000000e+00
1.950000e+01 1.450000e+01 0.000000e+00
1.900000e+01 1.450000e+01 0.000000e+00
1.850000e+01 1.450000e+01 0.000000e+00
1.800000e+01 1.450000e+01 0.000000e+00
1.750000e+01 1.450000e+01 0.000000e+00
1.700000e+01 1.450000e+01 0.000000e+00
1.650000e+01 1.450000e+01 0.000000e+00
1.600000e+01 1.450000e+01 0.000000e+00
1.550000e+01 1.450000e+01 0.000000e+00
1.500000e+01 1.450000e+01 0.000000e+00
3.000000e+01 1.400000e+01 0.000000e+00
2.950000e+01 1.400000e+01 0.000000e+00
2.900000e+01 1.400000e+01 0.000000e+00
2.850000e+01 1.400000e+01 0.000000e+00
2.800000e+01 1.400000e+01 0.000000e+00
2.750000e+01 1.400000e+01 0.000000e+00
2.700000e+01 1.400000e+01 0.000000e+00
2.650000e+01 1.400000e+01 0.000000e+00
2.600000e+01 1.400000e+01 0.000000e+00
2.550000e+01 1.400000e+01 0.000000e+00
2.500000e+01 1.400000e+01 0.000000e+00
2.450000e+01 1.400000e+01 0.000000e+00
2.400000e+01 1.400000e+01 0.000000e+00
2.350000e+01 1.400000e+01 0.000000e+00
2.300000e+01 1.400000e+01 0.000000e+00
2.250000e+01 1.400000e+01 0.000000e+00
2.200000e+01 1.400000e+01 0.000000e+00
2.150000e+01 1.400000e+01 0.000000e+00
2.100000e+01 1.400000e+01 0.000000e+00
2.050000e+01 1.400000e+01 0.000000e+00
2.000000e+01 1.400000e+01 0.000000e+00
1.950000e+01 1.400000e+01 0.000000e+00
1.900000e+01 1.400000e+01 0.000000e+00
1.850000e+01 1.400000e+01 0.000000e+00
1.800000e+01 1.400000e+01 0.000000e+00
1.750000e+01 1.400000e+01 0.000000e+00
1.700000e+01 1.400000e+01 0.000000e+00
1.650000e+01 1.400000e+01 0.000000e+00
1.600000e+01 1.400000e+01 0.000000e+00
1.550000e+01 1.400000e+01 0.000000e+00
1.500000e+01 1.400000e+01 0.000000e+00
3.000000e+01 1.350000e+01 0.000000e+00
2.950000e+01 1.350000e+01 0.000000e+00
2.900000e+01 1.350000e+01 0.000000e+00
2.850000e+01 1.350000e+01 0.000000e+00
2.800000e+01 1.350000e+01 0.000000e+00
2.750000e+01 1.350000e+01 0.000000e+00
2.700000e+01 1.350000e+01 0.000000e+00
2.650000e+01 1.350000e+01 0.000000e+00
2.600000e+01 1.350000e+01 0.000000e+00
2.550000e+01 1.350000e+01 0.000000e+00
2.500000e+01 1.350000e+01 0.000000e+00
2.450000e+01 1.350000e+01 0.000000e+00
2.400000e+01 1.350000e+01 0.000000e+00
2.350000e+01 1.350000e+01 0.000000e+00
2.300000e+01 1.350000e+01 0.000000e+00
2.250000e+01 1.350000e+01 0.000000e+00
2.200000e+01 1.350000e+01 0.000000e+00
2.150000e+01 1.350000e+01 0.000000e+00
2.100000e+01 1.350000e+01 0.000000e+00
2.050000e+01 1.350000e+01 0.000000e+00
2.000000e+01 1.350000e+01 0.000000e+00
1.950000e+01 1.350000e+01 0.000000e+00
1.900000e+01 1.350000e+01 0.000000e+00
1.850000e+01 1.350000e+01 0.000000e+00
1.800000e+01 1.350000e+01 0.000000e+00
1.750000e+01 1.350000e+01 0.000000e+00
1.700000e+01 1.350000e+01 0.000000e+00
1.650000e+01 1.350000e+01 0.000000e+00
1.600000e+01 1.350000e+01 0.000000e+00
1.550000e+01 1.350000e+01 0.000000e+00
1.500000e+01 1.350000e+01 0.000000e+00
3.000000e+01 1.300000e+01 0.000000e+00
2.950000e+01 1.300000e+01 0.000000e+00
2.900000e+01 1.300000e+01 0.000000e+00
2.850000e+01 1.300000e+01 0.000000e+00
2.800000e+01 1.300000e+01 0.000000e+00
2.750000e+01 1.300000e+01 0.000000e+00
2.700000e+01 1.300000e+01 0.000000e+00
2.650000e+01 1.300000e+01 0.000000e+00
2.600000e+01 1.300000e+01 0.000000e+00
2.550000e+01 1.300000e+01 0.000000e+00
2.500000e+01 1.300000e+01 0.000000e+00
2.450000e+01 1.300000e+01 0.000000e+00
2.400000e+01 1.300000e+01 0.000000e+00
2.350000e+01 1.300000e+01 0.000000e+00
2.300000e+01 1.300000e+01 0.000000e+00
2.250000e+01 1.300000e+01 0.000000e+00
2.200000e+01 1.300000e+01 0.000000e+00
2.150000e+01 1.300000e+01 0.000000e+00
2.100000e+01 1.300000e+01 0.000000e+00
2.050000e+01 1.300000e+01 0.000000e+00
2.000000e+01 1.300000e+01 0.000000e+00
1.950000e+01 1.300000e+01 0.000000e+00
1.900000e+01 1.300000e+01 0.000000e+00
1.850000e+01 1.300000e+01 0.000000e+00
1.800000e+01 1.300000e+01 0.000000e+00
1.750000e+01 1.300000e+01 0.000000e+00
1.700000e+01 1.300000e+01 0.000000e+00
1.650000e+01 1.300000e+01 0.000000e+00
1.600000e+01 1.300000e+01 0.000000e+00
1.550000e+01 1.300000e+01 0.000000e+00
1.500000e+01 1.300000e+01 0.000000e+00
3.000000e+01 1.250000e+01 0.000000e+00
2.950000e+01 1.250000e+01 0.000000e+00
2.900000e+01 1.250000e+01 0.000000e+00
2.850000e+01 1.250000e+01 0.000000e+00
2.800000e+01 1.250000e+01 0.000000e+00
2.750000e+01 1.250000e+01 0.000000e+00
2.700000e+01 1.250000e+01 0.000000e+00
2.650000e+01 1.250000e+01 0.000000e+00
2.600000e+01 1.250000e+01 0.000000e+00
2.550000e+01 1.250000e+01 0.000000e+00
2.500000e+01 1.250000e+01 0.000000e+00
2.450000e+01 1.250000e+01 0.000000e+00
2.400000e+01 1.250000e+01 0.000000e+00
2.350000e+01 1.250000e+01 0.000000e+00
2.300000e+01 1.250000e+01 0.000000e+00
2.250000e+01 1.250000e+01 0.000000e+00
2.200000e+01 1.250000e+01 0.000000e+00
2.150000e+01 1.250000e+01 0.000000e+00
2.100000e+01 1.250000e+01 0.000000e+00
2.050000e+01 1.250000e+01 0.000000e+00
2.000000e+01 1.250000e+01 0.000000e+00
1.950000e+01 1.250000e+01 0.000000e+00
1.900000e+01 1.250000e+01 0.000000e+00
1.850000e+01 1.250000e+01 0.000000e+00
1.800000e+01 1.250000e+01 0.000000e+00
1.750000e+01 1.250000e+01 0.000000e+00
1.700000e+01 1.250000e+01 0.000000e+00
1.650000e+01 1.250000e+01 0.000000e+00
1.600000e+01 1.250000e+01 0.000000e+00
1.550000e+01 1.250000e+01 0.000000e+00
1.500000e+01 1.250000e+01 0.000000e+00
3.000000e+01 1.200000e+01 0.000000e+00
2.950000e+01 1.200000e+01 0.000000e+00
2.900000e+01 1.200000e+01 0.000000e+00
2.850000e+01 1.200000e+01 0.000000e+00
2.800000e+01 1.200000e+01 0.000000e+00
2.750000e+01 1.200000e+01 0.000000e+00
2.700000e+01 1.200000e+01 0.000000e+00
2.650000e+01 1.200000e+01 0.000000e+00
2.600000e+01 1.200000e+01 0.000000e+00
2.550000e+01 1.200000e+01 0.000000e+00
2.500000e+01 1.200000e+01 0.000000e+00
2.450000e+01 1.200000e+01 0.000000e+00
2.400000e+01 1.200000e+01 0.000000e+00
2.350000e+01 1.200000e+01 0.000000e+00
2.300000e+01 1.200000e+01 0.000000e+00
2.250000e+01 1.200000e+01 0.000000e+00
2.200000e+01 1.200000e+01 0.000000e+00
2.150000e+01 1.200000e+01 0.000000e+00
2.100000e+01 1.200000e+01 0.000000e+00
2.050000e+01 1.200000e+01 0.000000e+00
2.000000e+01 1.200000e+01 0.000000e+00
1.950000e+01 1.200000e+01 0.000000e+00
1.900000e+01 1.200000e+01 0.000000e+00
1.850000e+01 1.200000e+01 0.000000e+00
1.800000e+01 1.200000e+01 0.000000e+00
1.750000e+01 1.200000e+01 0.000000e+00
1.700000e+01 1.200000e+01 0.000000e+00
1.650000e+01 1.200000e+01 0.000000e+00
1.600000e+01 1.200000e+01 0.000000e+00
1.550000e+01 1.200000e+01 0.000000e+00
1.500000e+01 1.200000e+01 0.000000e+00
3.000000e+01 1.150000e+01 0.000000e+00
2.950000e+01 1.150000e+01 0.000000e+00
2.900000e+01 1.150000e+01 0.000000e+00
2.850000e+01 1.150000e+01 0.000000e+00
2.800000e+01 1.150000e+01 0.000000e+00
2.750000e+01 1.150000e+01 0.000000e+00
2.700000e+01 1.150000e+01 0.000000e+00
2.650000e+01 1.150000e+01 0.000000e+00
2.600000e+01 1.150000e+01 0.000000e+00
2.550000e+01 1.150000e+01 0.000000e+00
2.500000e+01 1.150000e+01 0.000000e+00
2.450000e+01 1.150000e+01 0.000000e+00
2.400000e+01 1.150000e+01 0.000000e+00
2.350000e+01 1.150000e+01 0.000000e+00
2.300000e+01 1.150000e+01 0.000000e+00
2.250000e+01 1.150000e+01 0.000000e+00
2.200000e+01 1.150000e+01 0.000000e+00
2.150000e+01 1.150000e+01 0.000000e+00
2.100000e+01 1.150000e+01 0.000000e+00
2.050000e+01 1.150000e+01 0.000000e+00
2.000000e+01 1.150000e+01 0.000000e+00
1.950000e+01 1.150000e+01 0.000000e+00
1.900000e+01 1.150000e+01 0.000000e+00
1.850000e+01 1.150000e+01 0.000000e+00
1.800000e+01 1.150000e+01 0.000000e+00
1.750000e+01 1.150000e+01 0.000000e+00
1.700000e+01 1.150000e+01 0.000000e+00
1.650000e+01 1.150000e+01 0.000000e+00
1.600000e+01 1.150000e+01 0.000000e+00
1.550000e+01 1.150000e+01 0.000000e+00
1.500000e+01 1.150000e+01 0.000000e+00
3.000000e+01 1.100000e+01 0.000000e+00
2.950000e+01 1.100000e+01 0.000000e+00
2.900000e+01 1.100000e+01 0.000000e+00
2.850000e+01 1.100000e+01 0.000000e+00
2.800000e+01 1.100000e+01 0.000000e+00
2.750000e+01 1.100000e+01 0.000000e+00
[...]
POINT_DATA 5581
VECTORS dis double
1.4861e-06 -7.2826e-07 0
1.4786e-06 -7.1262e-07 0
1.4715e-06 -6.9689e-07 0
1.4646e-06 -6.8103e-07 0
1.4581e-06 -6.65e-07 0
1.4518e-06 -6.4878e-07 0
1.4459e-06 -6.3239e-07 0
1.4403e-06 -6.1581e-07 0
1.4349e-06 -5.9904e-07 0
1.4299e-06 -5.8211e-07 0
1.4252e-06 -5.6502e-07 0
1.4208e-06 -5.4778e-07 0
1.4168e-06 -5.3041e-07 0
1.4131e-06 -5.1291e-07 0
1.4099e-06 -4.9531e-07 0
1.4071e-06 -4.7762e-07 0
1.4047e-06 -4.5986e-07 0
1.4028e-06 -4.4203e-07 0
1.4015e-06 -4.2416e-07 0
1.4008e-06 -4.0627e-07 0
1.4008e-06 -3.8835e-07 0
1.4014e-06 -3.7043e-07 0
1.4029e-06 -3.5252e-07 0
1.4053e-06 -3.3464e-07 0
1.4086e-06 -3.1677e-07 0
1.4131e-06 -2.9894e-07 0
1.4187e-06 -2.8113e-07 0
1.4257e-06 -2.6334e-07 0
1.4342e-06 -2.4554e-07 0
1.4445e-06 -2.277e-07 0
1.4566e-06 -2.0974e-07 0
1.4705e-06 -7.163e-07 0
1.463e-06 -7.0067e-07 0
1.4557e-06 -6.8495e-07 0
1.4487e-06 -6.6908e-07 0
1.442e-06 -6.5303e-07 0
1.4356e-06 -6.368e-07 0
1.4295e-06 -6.2037e-07 0
1.4237e-06 -6.0375e-07 0
1.4182e-06 -5.8695e-07 0
1.4131e-06 -5.6998e-07 0
1.4082e-06 -5.5283e-07 0
1.4037e-06 -5.3554e-07 0
1.3995e-06 -5.1811e-07 0
1.3958e-06 -5.0056e-07 0
1.3924e-06 -4.829e-07 0
1.3895e-06 -4.6515e-07 0
1.3871e-06 -4.4733e-07 0
1.3852e-06 -4.2944e-07 0
1.3838e-06 -4.1152e-07 0
1.3831e-06 -3.9356e-07 0
1.383e-06 -3.7559e-07 0
1.3837e-06 -3.5762e-07 0
1.3852e-06 -3.3966e-07 0
1.3875e-06 -3.2173e-07 0
1.3909e-06 -3.0382e-07 0
1.3953e-06 -2.8596e-07 0
1.401e-06 -2.6812e-07 0
1.408e-06 -2.5032e-07 0
1.4164e-06 -2.3251e-07 0
1.4266e-06 -2.1467e-07 0
1.4385e-06 -1.9672e-07 0
1.455e-06 -7.044e-07 0
1.4473e-06 -6.888e-07 0
1.4399e-06 -6.7308e-07 0
1.4329e-06 -6.572e-07 0
1.4261e-06 -6.4114e-07 0
1.4196e-06 -6.2488e-07 0
1.4133e-06 -6.0843e-07 0
1.4074e-06 -5.9178e-07 0
1.4018e-06 -5.7494e-07 0
1.3965e-06 -5.5792e-07 0
1.3915e-06 -5.4073e-07 0
1.3869e-06 -5.2339e-07 0
1.3826e-06 -5.0591e-07 0
1.3788e-06 -4.8831e-07 0
1.3753e-06 -4.706e-07 0
1.3723e-06 -4.528e-07 0
1.3699e-06 -4.3492e-07 0
1.3679e-06 -4.1698e-07 0
1.3665e-06 -3.99e-07 0
1.3657e-06 -3.8099e-07 0
1.3656e-06 -3.6297e-07 0
1.3662e-06 -3.4495e-07 0
1.3677e-06 -3.2695e-07 0
1.37e-06 -3.0897e-07 0
1.3734e-06 -2.9103e-07 0
1.3778e-06 -2.7313e-07 0
1.3834e-06 -2.5527e-07 0
1.3903e-06 -2.3745e-07 0
1.3987e-06 -2.1963e-07 0
1.4087e-06 -2.0179e-07 0
1.4205e-06 -1.8387e-07 0
1.4394e-06 -6.9257e-07 0
1.4317e-06 -6.7701e-07 0
1.4243e-06 -6.613e-07 0
1.4171e-06 -6.4541e-07 0
1.4102e-06 -6.2934e-07 0
1.4036e-06 -6.1305e-07 0
1.3973e-06 -5.9657e-07 0
1.3913e-06 -5.7989e-07 0
1.3855e-06 -5.6301e-07 0
1.3801e-06 -5.4595e-07 0
1.3751e-06 -5.2872e-07 0
1.3703e-06 -5.1134e-07 0
1.366e-06 -4.9381e-07 0
1.362e-06 -4.7616e-07 0
1.3585e-06 -4.584e-07 0
1.3555e-06 -4.4055e-07 0
1.3529e-06 -4.2262e-07 0
1.3509e-06 -4.0464e-07 0
1.3494e-06 -3.8661e-07 0
1.3486e-06 -3.6855e-07 0
1.3485e-06 -3.5048e-07 0
1.3491e-06 -3.3242e-07 0
1.3505e-06 -3.1437e-07 0
1.3528e-06 -2.9636e-07 0
1.3561e-06 -2.7838e-07 0
1.3604e-06 -2.6044e-07 0
1.3659e-06 -2.4255e-07 0
1.3728e-06 -2.2471e-07 0
1.381e-06 -2.0688e-07 0
1.3909e-06 -1.8906e-07 0
1.4026e-06 -1.712e-07 0
1.424e-06 -6.8082e-07 0
1.4162e-06 -6.6532e-07 0
1.4087e-06 -6.4963e-07 0
1.4015e-06 -6.3374e-07 0
1.3945e-06 -6.1764e-07 0
1.3878e-06 -6.0134e-07 0
1.3814e-06 -5.8482e-07 0
1.3753e-06 -5.681e-07 0
1.3695e-06 -5.5118e-07 0
1.364e-06 -5.3408e-07 0
1.3588e-06 -5.1681e-07 0
1.354e-06 -4.9938e-07 0
1.3496e-06 -4.8181e-07 0
1.3456e-06 -4.6412e-07 0
1.342e-06 -4.4631e-07 0
1.3389e-06 -4.2841e-07 0
1.3362e-06 -4.1044e-07 0
1.3341e-06 -3.9241e-07 0
1.3326e-06 -3.7433e-07 0
1.3317e-06 -3.5623e-07 0
1.3316e-06 -3.3811e-07 0
1.3321e-06 -3.2e-07 0
1.3335e-06 -3.0191e-07 0
1.3357e-06 -2.8385e-07 0
1.3389e-06 -2.6583e-07 0
1.3432e-06 -2.4786e-07 0
1.3486e-06 -2.2994e-07 0
1.3554e-06 -2.1208e-07 0
1.3635e-06 -1.9425e-07 0
1.3732e-06 -1.7645e-07 0
1.3847e-06 -1.5865e-07 0
1.4086e-06 -6.6919e-07 0
1.4008e-06 -6.5375e-07 0
1.3932e-06 -6.3808e-07 0
1.3859e-06 -6.2219e-07 0
1.3789e-06 -6.0607e-07 0
1.3722e-06 -5.8974e-07 0
1.3657e-06 -5.7318e-07 0
1.3595e-06 -5.5642e-07 0
1.3536e-06 -5.3946e-07 0
1.348e-06 -5.2232e-07 0
1.3428e-06 -5.05e-07 0
1.3379e-06 -4.8753e-07 0
1.3334e-06 -4.6992e-07 0
1.3293e-06 -4.5217e-07 0
1.3256e-06 -4.3432e-07 0
1.3224e-06 -4.1638e-07 0
1.3198e-06 -3.9836e-07 0
1.3176e-06 -3.8028e-07 0
1.316e-06 -3.6216e-07 0
1.3151e-06 -3.4401e-07 0
1.3148e-06 -3.2585e-07 0
1.3153e-06 -3.0769e-07 0
1.3166e-06 -2.8955e-07 0
1.3188e-06 -2.7145e-07 0
1.3219e-06 -2.5339e-07 0
1.3261e-06 -2.3538e-07 0
1.3315e-06 -2.1743e-07 0
1.3381e-06 -1.9954e-07 0
1.3461e-06 -1.8171e-07 0
1.3557e-06 -1.6393e-07 0
1.367e-06 -1.4621e-07 0
1.3933e-06 -6.577e-07 0
1.3854e-06 -6.4231e-07 0
1.3778e-06 -6.2666e-07 0
1.3705e-06 -6.1076e-07 0
1.3634e-06 -5.9463e-07 0
1.3566e-06 -5.7826e-07 0
1.3501e-06 -5.6167e-07 0
1.3438e-06 -5.4486e-07 0
1.3378e-06 -5.2786e-07 0
1.3322e-06 -5.1067e-07 0
1.3269e-06 -4.9331e-07 0
1.3219e-06 -4.7579e-07 0
1.3174e-06 -4.5812e-07 0
1.3132e-06 -4.4034e-07 0
1.3095e-06 -4.2244e-07 0
1.3062e-06 -4.0445e-07 0
1.3035e-06 -3.8638e-07 0
1.3012e-06 -3.6825e-07 0
1.2996e-06 -3.5008e-07 0
1.2986e-06 -3.3189e-07 0
1.2983e-06 -3.1368e-07 0
1.2987e-06 -2.9548e-07 0
1.2999e-06 -2.7729e-07 0
1.302e-06 -2.5914e-07 0
1.3051e-06 -2.4103e-07 0
1.3092e-06 -2.2298e-07 0
1.3144e-06 -2.0499e-07 0
1.3209e-06 -1.8708e-07 0
1.3288e-06 -1.6925e-07 0
1.3382e-06 -1.5149e-07 0
1.3493e-06 -1.3384e-07 0
1.3781e-06 -6.4636e-07 0
1.3702e-06 -6.3102e-07 0
1.3625e-06 -6.1538e-07 0
1.3551e-06 -5.9947e-07 0
1.348e-06 -5.8331e-07 0
1.3411e-06 -5.6691e-07 0
1.3345e-06 -5.5027e-07 0
1.3282e-06 -5.3342e-07 0
1.3222e-06 -5.1637e-07 0
1.3165e-06 -4.9913e-07 0
1.3111e-06 -4.8172e-07 0
1.3061e-06 -4.6415e-07 0
1.3014e-06 -4.4644e-07 0
1.2972e-06 -4.286e-07 0
1.2934e-06 -4.1065e-07 0
1.2901e-06 -3.9261e-07 0
1.2873e-06 -3.745e-07 0
1.285e-06 -3.5632e-07 0
1.2833e-06 -3.3811e-07 0
1.2823e-06 -3.1986e-07 0
1.2819e-06 -3.016e-07 0
1.2822e-06 -2.8335e-07 0
1.2834e-06 -2.6511e-07 0
1.2854e-06 -2.4691e-07 0
1.2883e-06 -2.2876e-07 0
1.2923e-06 -2.1066e-07 0
1.2975e-06 -1.9263e-07 0
1.3038e-06 -1.7469e-07 0
1.3115e-06 -1.5685e-07 0
1.3208e-06 -1.3911e-07 0
1.3318e-06 -1.2151e-07 0
1.3629e-06 -6.352e-07 0
1.355e-06 -6.1988e-07 0
1.3473e-06 -6.0425e-07 0
1.3399e-06 -5.8833e-07 0
1.3327e-06 -5.7213e-07 0
1.3258e-06 -5.5569e-07 0
1.3191e-06 -5.3901e-07 0
1.3127e-06 -5.2211e-07 0
1.3066e-06 -5.05e-07 0
1.3009e-06 -4.8771e-07 0
1.2954e-06 -4.7024e-07 0
1.2903e-06 -4.5262e-07 0
1.2856e-06 -4.3486e-07 0
1.2813e-06 -4.1697e-07 0
1.2775e-06 -3.9897e-07 0
1.2741e-06 -3.8088e-07 0
1.2712e-06 -3.6272e-07 0
1.2689e-06 -3.4449e-07 0
1.2671e-06 -3.2622e-07 0
1.266e-06 -3.0792e-07 0
1.2655e-06 -2.8961e-07 0
1.2658e-06 -2.7131e-07 0
1.2669e-06 -2.5302e-07 0
1.2688e-06 -2.3476e-07 0
1.2717e-06 -2.1655e-07 0
1.2756e-06 -1.9841e-07 0
1.2806e-06 -1.8034e-07 0
1.2868e-06 -1.6237e-07 0
1.2944e-06 -1.4451e-07 0
1.3035e-06 -1.2678e-07 0
1.3143e-06 -1.0921e-07 0
1.3478e-06 -6.2421e-07 0
1.3398e-06 -6.0891e-07 0
1.3321e-06 -5.9327e-07 0
1.3246e-06 -5.7733e-07 0
1.3174e-06 -5.611e-07 0
1.3104e-06 -5.446e-07 0
1.3037e-06 -5.2787e-07 0
1.2973e-06 -5.1092e-07 0
1.2911e-06 -4.9375e-07 0
1.2853e-06 -4.764e-07 0
1.2798e-06 -4.5888e-07 0
1.2746e-06 -4.412e-07 0
1.2699e-06 -4.2338e-07 0
1.2655e-06 -4.0544e-07 0
1.2616e-06 -3.8739e-07 0
1.2582e-06 -3.6924e-07 0
1.2552e-06 -3.5103e-07 0
1.2528e-06 -3.3275e-07 0
1.251e-06 -3.1443e-07 0
1.2498e-06 -2.9608e-07 0
1.2493e-06 -2.7771e-07 0
1.2495e-06 -2.5935e-07 0
1.2505e-06 -2.41e-07 0
1.2523e-06 -2.2269e-07 0
1.2551e-06 -2.0442e-07 0
1.2589e-06 -1.8622e-07 0
1.2638e-06 -1.6811e-07 0
1.2699e-06 -1.5009e-07 0
1.2773e-06 -1.322e-07 0
1.2862e-06 -1.1447e-07 0
1.2968e-06 -9.6916e-08 0
1.3327e-06 -6.1343e-07 0
1.3247e-06 -5.9812e-07 0
1.3169e-06 -5.8246e-07 0
1.3094e-06 -5.6648e-07 0
1.3021e-06 -5.502e-07 0
1.2951e-06 -5.3366e-07 0
1.2883e-06 -5.1686e-07 0
1.2818e-06 -4.9985e-07 0
1.2756e-06 -4.8262e-07 0
1.2698e-06 -4.6521e-07 0
1.2642e-06 -4.4762e-07 0
1.259e-06 -4.2988e-07 0
1.2542e-06 -4.1201e-07 0
1.2498e-06 -3.9401e-07 0
1.2458e-06 -3.759e-07 0
1.2423e-06 -3.577e-07 0
1.2393e-06 -3.3943e-07 0
1.2368e-06 -3.211e-07 0
1.2349e-06 -3.0272e-07 0
1.2336e-06 -2.8431e-07 0
1.2331e-06 -2.6589e-07 0
1.2332e-06 -2.4747e-07 0
1.2341e-06 -2.2906e-07 0
1.2359e-06 -2.1069e-07 0
1.2385e-06 -1.9236e-07 0
1.2422e-06 -1.741e-07 0
1.247e-06 -1.5593e-07 0
1.253e-06 -1.3786e-07 0
1.2603e-06 -1.1993e-07 0
1.269e-06 -1.0217e-07 0
1.2794e-06 -8.4618e-08 0
1.3175e-06 -6.0285e-07 0
1.3095e-06 -5.8752e-07 0
1.3017e-06 -5.7182e-07 0
1.2942e-06 -5.5579e-07 0
1.2869e-06 -5.3945e-07 0
1.2798e-06 -5.2284e-07 0
1.273e-06 -5.0599e-07 0
1.2664e-06 -4.889e-07 0
1.2602e-06 -4.7161e-07 0
1.2542e-06 -4.5413e-07 0
1.2486e-06 -4.3648e-07 0
1.2433e-06 -4.1868e-07 0
1.2385e-06 -4.0074e-07 0
1.234e-06 -3.8268e-07 0
1.2299e-06 -3.6451e-07 0
1.2264e-06 -3.4626e-07 0
1.2233e-06 -3.2793e-07 0
1.2208e-06 -3.0954e-07 0
1.2188e-06 -2.9111e-07 0
1.2175e-06 -2.7264e-07 0
1.2168e-06 -2.5415e-07 0
1.2169e-06 -2.3567e-07 0
1.2177e-06 -2.172e-07 0
1.2194e-06 -1.9876e-07 0
1.222e-06 -1.8036e-07 0
1.2256e-06 -1.6204e-07 0
1.2302e-06 -1.438e-07 0
1.2361e-06 -1.2567e-07 0
1.2432e-06 -1.0769e-07 0
1.2518e-06 -8.9887e-08 0
1.2619e-06 -7.2303e-08 0
1.3024e-06 -5.9249e-07 0
1.2944e-06 -5.7711e-07 0
1.2865e-06 -5.6135e-07 0
1.2789e-06 -5.4526e-07 0
1.2716e-06 -5.2885e-07 0
1.2645e-06 -5.1217e-07 0
1.2576e-06 -4.9524e-07 0
1.251e-06 -4.7808e-07 0
1.2447e-06 -4.6071e-07 0
1.2387e-06 -4.4316e-07 0
1.233e-06 -4.2544e-07 0
1.2276e-06 -4.0757e-07 0
1.2227e-06 -3.8957e-07 0
1.2182e-06 -3.7145e-07 0
1.2141e-06 -3.5322e-07 0
1.2104e-06 -3.3491e-07 0
1.2073e-06 -3.1652e-07 0
1.2047e-06 -2.9807e-07 0
1.2027e-06 -2.7958e-07 0
1.2013e-06 -2.6105e-07 0
1.2006e-06 -2.425e-07 0
1.2005e-06 -2.2395e-07 0
1.2013e-06 -2.0541e-07 0
1.2029e-06 -1.869e-07 0
1.2054e-06 -1.6843e-07 0
1.2089e-06 -1.5003e-07 0
1.2134e-06 -1.3172e-07 0
1.2191e-06 -1.1352e-07 0
1.2261e-06 -9.547e-08 0
1.2345e-06 -7.7603e-08 0
1.2444e-06 -5.9964e-08 0
1.2872e-06 -5.8234e-07 0
1.2791e-06 -5.6689e-07 0
1.2713e-06 -5.5106e-07 0
1.2637e-06 -5.3489e-07 0
1.2562e-06 -5.184e-07 0
1.2491e-06 -5.0164e-07 0
1.2421e-06 -4.8462e-07 0
1.2355e-06 -4.6738e-07 0
1.2291e-06 -4.4994e-07 0
1.223e-06 -4.3231e-07 0
1.2173e-06 -4.1451e-07 0
1.2119e-06 -3.9658e-07 0
1.2069e-06 -3.785e-07 0
1.2023e-06 -3.6032e-07 0
1.1981e-06 -3.4203e-07 0
1.1944e-06 -3.2366e-07 0
1.1912e-06 -3.0521e-07 0
1.1886e-06 -2.867e-07 0
1.1865e-06 -2.6814e-07 0
1.185e-06 -2.4955e-07 0
1.1842e-06 -2.3094e-07 0
1.1841e-06 -2.1232e-07 0
1.1848e-06 -1.937e-07 0
1.1863e-06 -1.7512e-07 0
1.1887e-06 -1.5657e-07 0
1.1921e-06 -1.3809e-07 0
1.1965e-06 -1.1969e-07 0
1.2021e-06 -1.0141e-07 0
1.2089e-06 -8.3269e-08 0
1.2172e-06 -6.5317e-08 0
1.2269e-06 -4.7597e-08 0
1.2719e-06 -5.7241e-07 0
1.2638e-06 -5.5687e-07 0
1.256e-06 -5.4095e-07 0
1.2483e-06 -5.2468e-07 0
1.2408e-06 -5.081e-07 0
1.2336e-06 -4.9124e-07 0
1.2266e-06 -4.7413e-07 0
1.2199e-06 -4.568e-07 0
1.2135e-06 -4.3927e-07 0
1.2073e-06 -4.2156e-07 0
1.2015e-06 -4.0369e-07 0
1.1961e-06 -3.8568e-07 0
1.191e-06 -3.6754e-07 0
1.1863e-06 -3.4929e-07 0
1.1821e-06 -3.3093e-07 0
1.1783e-06 -3.125e-07 0
1.1751e-06 -2.9399e-07 0
1.1724e-06 -2.7541e-07 0
1.1702e-06 -2.5679e-07 0
1.1687e-06 -2.3814e-07 0
1.1678e-06 -2.1946e-07 0
1.1677e-06 -2.0077e-07 0
1.1683e-06 -1.8208e-07 0
1.1697e-06 -1.6341e-07 0
1.172e-06 -1.4478e-07 0
1.1753e-06 -1.2621e-07 0
1.1796e-06 -1.0771e-07 0
1.185e-06 -8.9329e-08 0
1.1917e-06 -7.1088e-08 0
1.1997e-06 -5.3029e-08 0
1.2093e-06 -3.52e-08 0
1.2565e-06 -5.6271e-07 0
1.2484e-06 -5.4705e-07 0
1.2405e-06 -5.3101e-07 0
1.2328e-06 -5.1463e-07 0
1.2253e-06 -4.9794e-07 0
1.218e-06 -4.8098e-07 0
1.211e-06 -4.6377e-07 0
1.2042e-06 -4.4634e-07 0
1.1977e-06 -4.2872e-07 0
1.1915e-06 -4.1092e-07 0
1.1856e-06 -3.9297e-07 0
1.1801e-06 -3.7488e-07 0
1.175e-06 -3.5667e-07 0
1.1702e-06 -3.3835e-07 0
1.1659e-06 -3.1993e-07 0
1.1621e-06 -3.0143e-07 0
1.1588e-06 -2.8286e-07 0
1.156e-06 -2.6423e-07 0
1.1538e-06 -2.4554e-07 0
1.1522e-06 -2.2682e-07 0
1.1513e-06 -2.0807e-07 0
1.151e-06 -1.893e-07 0
1.1516e-06 -1.7054e-07 0
1.1529e-06 -1.5178e-07 0
1.1551e-06 -1.3306e-07 0
1.1583e-06 -1.1439e-07 0
1.1625e-06 -9.5788e-08 0
1.1678e-06 -7.7291e-08 0
1.1743e-06 -5.8928e-08 0
1.1822e-06 -4.0741e-08 0
1.1915e-06 -2.2775e-08 0
1.241e-06 -5.5322e-07 0
1.2329e-06 -5.3743e-07 0
1.225e-06 -5.2126e-07 0
1.2172e-06 -5.0474e-07 0
1.2096e-06 -4.8793e-07 0
1.2023e-06 -4.7085e-07 0
1.1952e-06 -4.5353e-07 0
1.1884e-06 -4.36e-07 0
1.1818e-06 -4.1828e-07 0
1.1755e-06 -4.0039e-07 0
1.1696e-06 -3.8236e-07 0
1.164e-06 -3.6419e-07 0
1.1588e-06 -3.459e-07 0
1.154e-06 -3.2751e-07 0
1.1496e-06 -3.0903e-07 0
1.1457e-06 -2.9046e-07 0
1.1423e-06 -2.7183e-07 0
1.1395e-06 -2.5313e-07 0
1.1372e-06 -2.3438e-07 0
1.1355e-06 -2.1559e-07 0
1.1345e-06 -1.9677e-07 0
1.1342e-06 -1.7793e-07 0
1.1347e-06 -1.5908e-07 0
1.136e-06 -1.4024e-07 0
1.1381e-06 -1.2142e-07 0
1.1412e-06 -1.0264e-07 0
1.1452e-06 -8.3922e-08 0
1.1504e-06 -6.5297e-08 0
1.1568e-06 -4.6795e-08 0
1.1645e-06 -2.8456e-08 0
1.1736e-06 -1.0326e-08 0
1.2253e-06 -5.4396e-07 0
1.2172e-06 -5.28e-07 0
1.2092e-06 -5.1168e-07 0
1.2014e-06 -4.9502e-07 0
1.1938e-06 -4.7807e-07 0
1.1864e-06 -4.6086e-07 0
1.1793e-06 -4.4342e-07 0
1.1723e-06 -4.2577e-07 0
1.1657e-06 -4.0795e-07 0
1.1594e-06 -3.8997e-07 0
1.1534e-06 -3.7184e-07 0
1.1477e-06 -3.5359e-07 0
1.1424e-06 -3.3523e-07 0
1.1376e-06 -3.1677e-07 0
1.1331e-06 -2.9822e-07 0
1.1292e-06 -2.7959e-07 0
1.1257e-06 -2.6089e-07 0
1.1228e-06 -2.4214e-07 0
1.1204e-06 -2.2332e-07 0
1.1187e-06 -2.0447e-07 0
1.1176e-06 -1.8558e-07 0
1.1173e-06 -1.6666e-07 0
1.1176e-06 -1.4773e-07 0
1.1188e-06 -1.2879e-07 0
1.1209e-06 -1.0986e-07 0
1.1238e-06 -9.0967e-08 0
1.1278e-06 -7.2121e-08 0
1.1328e-06 -5.3353e-08 0
1.1391e-06 -3.4693e-08 0
1.1466e-06 -1.618e-08 0
1.1555e-06 2.1406e-09 0
1.2095e-06 -5.3492e-07 0
1.2013e-06 -5.1877e-07 0
1.1933e-06 -5.0227e-07 0
1.1855e-06 -4.8545e-07 0
1.1778e-06 -4.6834e-07 0
1.1704e-06 -4.5099e-07 0
1.1631e-06 -4.3342e-07 0
1.1561e-06 -4.1566e-07 0
1.1494e-06 -3.9772e-07 0
1.143e-06 -3.7964e-07 0
1.1369e-06 -3.6142e-07 0
1.1312e-06 -3.4309e-07 0
1.1258e-06 -3.2465e-07 0
1.1209e-06 -3.0612e-07 0
1.1164e-06 -2.8751e-07 0
1.1124e-06 -2.6882e-07 0
1.1088e-06 -2.5006e-07 0
1.1059e-06 -2.3124e-07 0
1.1034e-06 -2.1237e-07 0
1.1016e-06 -1.9345e-07 0
1.1005e-06 -1.7448e-07 0
1.1001e-06 -1.5549e-07 0
1.1004e-06 -1.3647e-07 0
1.1015e-06 -1.1743e-07 0
1.1034e-06 -9.8398e-08 0
1.1063e-06 -7.9378e-08 0
1.1101e-06 -6.0394e-08 0
1.1151e-06 -4.1468e-08 0
1.1211e-06 -2.2633e-08 0
1.1285e-06 -3.9232e-09 0
1.1371e-06 1.4616e-08 0
1.1934e-06 -5.2608e-07 0
1.1852e-06 -5.0973e-07 0
1.1772e-06 -4.9303e-07 0
1.1693e-06 -4.7603e-07 0
1.1616e-06 -4.5876e-07 0
1.1541e-06 -4.4125e-07 0
1.1468e-06 -4.2354e-07 0
1.1397e-06 -4.0565e-07 0
1.1329e-06 -3.876e-07 0
1.1264e-06 -3.6941e-07 0
1.1203e-06 -3.511e-07 0
1.1144e-06 -3.3269e-07 0
1.109e-06 -3.1417e-07 0
1.104e-06 -2.9557e-07 0
1.0994e-06 -2.7689e-07 0
1.0953e-06 -2.5814e-07 0
1.0917e-06 -2.3933e-07 0
1.0887e-06 -2.2045e-07 0
1.0862e-06 -2.0152e-07 0
1.0843e-06 -1.8253e-07 0
1.0831e-06 -1.635e-07 0
1.0826e-06 -1.4443e-07 0
1.0828e-06 -1.2532e-07 0
1.0838e-06 -1.0618e-07 0
1.0857e-06 -8.7034e-08 0
1.0885e-06 -6.7883e-08 0
1.0922e-06 -4.8749e-08 0
1.097e-06 -2.9653e-08 0
1.103e-06 -1.0624e-08 0
1.1101e-06 8.3042e-09 0
1.1186e-06 2.709e-08 0
1.1771e-06 -5.1746e-07 0
1.1689e-06 -5.0087e-07 0
1.1608e-06 -4.8396e-07 0
1.1529e-06 -4.6675e-07 0
1.1451e-06 -4.493e-07 0
1.1375e-06 -4.3163e-07 0
1.1301e-06 -4.1377e-07 0
1.123e-06 -3.9574e-07 0
1.1161e-06 -3.7757e-07 0
1.1096e-06 -3.5928e-07 0
1.1033e-06 -3.4087e-07 0
1.0974e-06 -3.2237e-07 0
1.0919e-06 -3.0378e-07 0
1.0868e-06 -2.8512e-07 0
1.0822e-06 -2.6638e-07 0
1.078e-06 -2.4757e-07 0
1.0743e-06 -2.287e-07 0
1.0712e-06 -2.0977e-07 0
1.0686e-06 -1.9078e-07 0
1.0667e-06 -1.7173e-07 0
1.0654e-06 -1.5263e-07 0
1.0648e-06 -1.3348e-07 0
1.065e-06 -1.1429e-07 0
1.0659e-06 -9.505e-08 0
1.0677e-06 -7.5781e-08 0
1.0704e-06 -5.6492e-08 0
1.074e-06 -3.7198e-08 0
1.0787e-06 -1.7919e-08 0
1.0845e-06 1.3203e-09 0
1.0915e-06 2.0489e-08 0
1.0997e-06 3.9547e-08 0
1.1606e-06 -5.0903e-07 0
1.1524e-06 -4.9219e-07 0
1.1442e-06 -4.7504e-07 0
1.1362e-06 -4.5762e-07 0
1.1284e-06 -4.3997e-07 0
1.1207e-06 -4.2212e-07 0
1.1132e-06 -4.041e-07 0
1.106e-06 -3.8594e-07 0
1.0991e-06 -3.6764e-07 0
1.0924e-06 -3.4924e-07 0
1.0861e-06 -3.3074e-07 0
1.0801e-06 -3.1215e-07 0
1.0745e-06 -2.9349e-07 0
1.0693e-06 -2.7476e-07 0
1.0646e-06 -2.5596e-07 0
1.0603e-06 -2.371e-07 0
1.0566e-06 -2.1818e-07 0
1.0534e-06 -1.992e-07 0
1.0508e-06 -1.8016e-07 0
1.0488e-06 -1.6105e-07 0
1.0474e-06 -1.4189e-07 0
1.0468e-06 -1.2266e-07 0
1.0468e-06 -1.0338e-07 0
1.0477e-06 -8.4041e-08 0
1.0494e-06 -6.4651e-08 0
1.052e-06 -4.5218e-08 0
1.0555e-06 -2.5756e-08 0
1.0601e-06 -6.2812e-09 0
1.0657e-06 1.3185e-08 0
1.0725e-06 3.2614e-08 0
1.0806e-06 5.1971e-08 0
1.1438e-06 -5.008e-07 0
1.1355e-06 -4.8367e-07 0
1.1273e-06 -4.6627e-07 0
1.1192e-06 -4.4862e-07 0
1.1113e-06 -4.3076e-07 0
1.1036e-06 -4.1273e-07 0
1.096e-06 -3.9454e-07 0
1.0887e-06 -3.7623e-07 0
1.0817e-06 -3.578e-07 0
1.0749e-06 -3.3929e-07 0
1.0685e-06 -3.2069e-07 0
1.0624e-06 -3.0202e-07 0
1.0567e-06 -2.8329e-07 0
1.0515e-06 -2.6449e-07 0
1.0467e-06 -2.4564e-07 0
1.0423e-06 -2.2673e-07 0
1.0385e-06 -2.0777e-07 0
1.0352e-06 -1.8874e-07 0
1.0325e-06 -1.6966e-07 0
1.0305e-06 -1.505e-07 0
1.029e-06 -1.3128e-07 0
1.0283e-06 -1.1198e-07 0
1.0283e-06 -9.2613e-08 0
1.0291e-06 -7.317e-08 0
1.0307e-06 -5.3656e-08 0
1.0332e-06 -3.4076e-08 0
1.0367e-06 -1.4438e-08 0
1.0411e-06 5.2445e-09 0
1.0466e-06 2.4953e-08 0
1.0532e-06 4.4663e-08 0
1.0611e-06 6.4343e-08 0
1.1267e-06 -4.9275e-07 0
1.1183e-06 -4.7532e-07 0
1.1101e-06 -4.5764e-07 0
1.1019e-06 -4.3974e-07 0
1.0939e-06 -4.2166e-07 0
1.0861e-06 -4.0343e-07 0
1.0785e-06 -3.8507e-07 0
1.0711e-06 -3.666e-07 0
1.0639e-06 -3.4805e-07 0
1.0571e-06 -3.2942e-07 0
1.0506e-06 -3.1072e-07 0
1.0444e-06 -2.9197e-07 0
1.0386e-06 -2.7317e-07 0
1.0333e-06 -2.5432e-07 0
1.0284e-06 -2.3543e-07 0
1.0239e-06 -2.1648e-07 0
1.02e-06 -1.9747e-07 0
1.0167e-06 -1.7841e-07 0
1.0139e-06 -1.5928e-07 0
1.0118e-06 -1.4009e-07 0
1.0103e-06 -1.2081e-07 0
1.0095e-06 -1.0145e-07 0
1.0095e-06 -8.1995e-08 0
1.0102e-06 -6.2451e-08 0
1.0117e-06 -4.2812e-08 0
1.0141e-06 -2.308e-08 0
1.0175e-06 -3.2601e-09 0
1.0218e-06 1.664e-08 0
1.0271e-06 3.6604e-08 0
1.0336e-06 5.6614e-08 0
1.0413e-06 7.6642e-08 0
1.1092e-06 -4.8486e-07 0
1.1008e-06 -4.6711e-07 0
1.0925e-06 -4.4914e-07 0
1.0843e-06 -4.3098e-07 0
1.0762e-06 -4.1267e-07 0
1.0683e-06 -3.9423e-07 0
1.0605e-06 -3.7569e-07 0
1.053e-06 -3.5706e-07 0
1.0458e-06 -3.3837e-07 0
1.0389e-06 -3.1963e-07 0
1.0322e-06 -3.0084e-07 0
1.026e-06 -2.8201e-07 0
1.0201e-06 -2.6315e-07 0
1.0147e-06 -2.4425e-07 0
1.0097e-06 -2.2531e-07 0
1.0052e-06 -2.0633e-07 0
1.0012e-06 -1.873e-07 0
9.9775e-07 -1.6821e-07 0
9.9491e-07 -1.4905e-07 0
9.927e-07 -1.2981e-07 0
9.9114e-07 -1.1049e-07 0
9.9028e-07 -9.1068e-08 0
9.9015e-07 -7.154e-08 0
9.908e-07 -5.1898e-08 0
9.9226e-07 -3.2135e-08 0
9.9459e-07 -1.225e-08 0
9.9783e-07 7.7576e-09 0
1.002e-06 2.7883e-08 0
1.0073e-06 4.8118e-08 0
1.0136e-06 6.8445e-08 0
1.0211e-06 8.8843e-08 0
1.0914e-06 -4.7714e-07 0
1.083e-06 -4.5905e-07 0
1.0746e-06 -4.4076e-07 0
1.0663e-06 -4.2233e-07 0
1.0581e-06 -4.0377e-07 0
1.0501e-06 -3.8511e-07 0
1.0422e-06 -3.6638e-07 0
1.0346e-06 -3.4759e-07 0
1.0273e-06 -3.2877e-07 0
1.0202e-06 -3.0991e-07 0
1.0135e-06 -2.9103e-07 0
1.0071e-06 -2.7213e-07 0
1.0012e-06 -2.5321e-07 0
9.9562e-07 -2.3427e-07 0
9.9053e-07 -2.153e-07 0
9.8594e-07 -1.963e-07 0
9.8187e-07 -1.7725e-07 0
9.7836e-07 -1.5814e-07 0
9.7545e-07 -1.3896e-07 0
9.7316e-07 -1.197e-07 0
9.7154e-07 -1.0034e-07 0
9.7061e-07 -8.0862e-08 0
9.7041e-07 -6.1263e-08 0
9.7099e-07 -4.1527e-08 0
9.7238e-07 -2.1644e-08 0
9.7462e-07 -1.6048e-09 0
9.7777e-07 1.8594e-08 0
9.8186e-07 3.8953e-08 0
9.8696e-07 5.9469e-08 0
9.9312e-07 8.013e-08 0
1.0004e-06 1.0092e-07 0